[Molden Format]
made by pyscf v[1.6.3]
[Atoms] (AU)
N   1   7     0.00000000000000    -0.22911711620958     0.00000000000000
H   2   1     1.08006844371802     0.53460660448903    -1.87073342017146
H   3   1    -2.16013688743605     0.53460660448903    -0.00000000000000
H   4   1     1.08006844371802     0.53460660448903     1.87073342017146
[GTO]
1 0
 s    3 1.00
             99.106169    0.15432897032795
             18.052312    0.53532814113758
             4.8856602    0.44463454094486
 s    3 1.00
             3.7804559  -0.099967228443697
             0.8784966    0.39951282378033
             0.2857144    0.70011545910051
 p    3 1.00
             3.7804559    0.15591626853622
             0.8784966    0.60768371429493
             0.2857144    0.39195738632021

2 0
 s    3 1.00
            3.42525091    0.15432897070298
            0.62391373    0.53532814243847
             0.1688554    0.44463454202535

3 0
 s    3 1.00
            3.42525091    0.15432897070298
            0.62391373    0.53532814243847
             0.1688554    0.44463454202535

4 0
 s    3 1.00
            3.42525091    0.15432897070298
            0.62391373    0.53532814243847
             0.1688554    0.44463454202535

[5d]
[9g]


[MO]
 Sym= A
 Ene=               0
 Spin= Alpha
 Occup=    1.00000
   1      0.99397076865611
   2     0.026834063901856
   3    5.3139366051838e-18
   4     0.003157539416302
   5                     0
   6    -0.0047415185727136
   7    -0.0047415185727136
   8    -0.0047415185727136
 Sym= A
 Ene=               1
 Spin= Alpha
 Occup=    1.00000
   1      -0.1007079639377
   2      0.33485356721767
   3      0.23569383000178
   4      0.24465406067065
   5      0.40823368858061
   6    -0.090806097426686
   7    -0.090806097436823
   8      0.54698412597791
 Sym= A
 Ene=               2
 Spin= Alpha
 Occup=    1.00000
   1      0.10070796393686
   2     -0.33485356720891
   3      0.47138765997871
   4     -0.24465406071649
   5    -9.6922174893914e-12
   6     0.090806097422297
   7     -0.54698412597652
   8     0.090806097407154
 Sym= A
 Ene=               3
 Spin= Alpha
 Occup=    1.00000
   1     -0.10070796393368
   2        0.334853567197
   3      0.23569382999458
   4      0.24465406071927
   5     -0.40823368857371
   6      0.54698412597892
   7    -0.090806097420667
   8    -0.090806097414892
 Sym= A
 Ene=               4
 Spin= Alpha
 Occup=    1.00000
   1      0.16348535290692
   2     -0.69065943551275
   3    7.4815014916694e-12
   4      0.77914526010989
   5    2.0263315818578e-11
   6     0.094763880813708
   7     0.094763880819413
   8     0.094763880845366
 Sym= A
 Ene=               5
 Spin= Alpha
 Occup=    0.00000
   1    -0.092100898393644
   2       0.5308576725668
   3      0.39158640928832
   4      0.30074245459875
   5      0.67824755644225
   6    -0.020071496924848
   7    -0.020071496925913
   8      -1.0313520316082
 Sym= A
 Ene=               6
 Spin= Alpha
 Occup=    0.00000
   1     0.092100898393436
   2      -0.5308576725656
   3      0.78317281857876
   4     -0.30074245459807
   5    7.5484141263109e-13
   6     0.020071496924755
   7       1.0313520316082
   8     0.020071496923627
 Sym= A
 Ene=               7
 Spin= Alpha
 Occup=    0.00000
   1     0.092100898393531
   2     -0.53085767256615
   3     -0.39158640928914
   4     -0.30074245459838
   5      0.67824755644233
   6       1.0313520316082
   7     0.020071496924763
   8     0.020071496924713
