[Molden Format]
made by pyscf v[1.6.3]
[Atoms] (AU)
N   1   7    -0.00000000000000    -0.16365508300685     0.00000000000000
H   2   1     0.77147745979859     0.38186186034931     1.33623815726533
H   3   1     0.77147745979859     0.38186186034931    -1.33623815726533
H   4   1    -1.54295491959718     0.38186186034931     0.00000000000000
[GTO]
1 0
 s    3 1.00
             99.106169    0.15432897032795
             18.052312    0.53532814113758
             4.8856602    0.44463454094486
 s    3 1.00
             3.7804559  -0.099967228443697
             0.8784966    0.39951282378033
             0.2857144    0.70011545910051
 p    3 1.00
             3.7804559    0.15591626853622
             0.8784966    0.60768371429493
             0.2857144    0.39195738632021

2 0
 s    3 1.00
            3.42525091    0.15432897070298
            0.62391373    0.53532814243847
             0.1688554    0.44463454202535

3 0
 s    3 1.00
            3.42525091    0.15432897070298
            0.62391373    0.53532814243847
             0.1688554    0.44463454202535

4 0
 s    3 1.00
            3.42525091    0.15432897070298
            0.62391373    0.53532814243847
             0.1688554    0.44463454202535

[5d]
[9g]


[MO]
 Sym= A
 Ene=               0
 Spin= Alpha
 Occup=    1.00000
   1      0.99284274830649
   2      0.03838313285558
   3    3.1511961091828e-17
   4    0.0059531411024261
   5                     0
   6    -0.008752437090593
   7    -0.008752437090593
   8    -0.0087524370905929
 Sym= A
 Ene=               1
 Spin= Alpha
 Occup=    1.00000
   1     -0.12608797823018
   2      0.39462261315619
   3      0.25168374743763
   4      0.12478800472716
   5      0.43592903800215
   6       0.4689568566448
   7    -0.099233304134051
   8    -0.099233304133495
 Sym= A
 Ene=               2
 Spin= Alpha
 Occup=    1.00000
   1      0.12608797823284
   2     -0.39462261316892
   3      0.50336749487648
   4      -0.1247880046971
   5    4.0686536570346e-13
   6     0.099233304136216
   7     0.099233304135696
   8     -0.46895685664318
 Sym= A
 Ene=               3
 Spin= Alpha
 Occup=    1.00000
   1      0.12608797823374
   2     -0.39462261317288
   3     -0.25168374743809
   4     -0.12478800468941
   5      0.43592903800215
   6      0.09923330413624
   7      -0.4689568566426
   8     0.099233304136229
 Sym= A
 Ene=               4
 Spin= Alpha
 Occup=    1.00000
   1     0.090106170444648
   2     -0.41773647584116
   3    -6.0011781329545e-12
   4      0.92222848641972
   5    -1.7790033417107e-11
   6     0.056145175318054
   7     0.056145175341237
   8     0.056145175336414
 Sym= A
 Ene=               5
 Spin= Alpha
 Occup=    0.00000
   1     -0.11616566535034
   2      0.97156270812293
   3       0.4828952025864
   4      0.30276204103117
   5     -0.83639902561686
   6    0.0056755619700291
   7       -1.471727813232
   8     0.005675561964771
 Sym= A
 Ene=               6
 Spin= Alpha
 Occup=    0.00000
   1      0.11616566534936
   2     -0.97156270811477
   3      0.96579040518201
   4     -0.30276204102863
   5    -3.238457333541e-12
   6    -0.0056755619707021
   7    -0.0056755619764242
   8       1.4717278132321
 Sym= A
 Ene=               7
 Spin= Alpha
 Occup=    0.00000
   1       0.1161656653498
   2     -0.97156270811839
   3     -0.48289520258975
   4     -0.30276204102975
   5     -0.83639902561753
   6        1.471727813232
   7    -0.0056755619711888
   8    -0.0056755619704672
