[Molden Format]
made by pyscf v[1.6.3]
[Atoms] (AU)
N   1   7     0.00000000000000    -0.18002059130753     0.00000000000000
H   2   1     0.84862520577845     0.42004804638424    -1.46986197299186
H   3   1    -1.69725041155689     0.42004804638424    -0.00000000000000
H   4   1     0.84862520577845     0.42004804638424     1.46986197299186
[GTO]
1 0
 s    3 1.00
             99.106169    0.15432897032795
             18.052312    0.53532814113758
             4.8856602    0.44463454094486
 s    3 1.00
             3.7804559  -0.099967228443697
             0.8784966    0.39951282378033
             0.2857144    0.70011545910051
 p    3 1.00
             3.7804559    0.15591626853622
             0.8784966    0.60768371429493
             0.2857144    0.39195738632021

2 0
 s    3 1.00
            3.42525091    0.15432897070298
            0.62391373    0.53532814243847
             0.1688554    0.44463454202535

3 0
 s    3 1.00
            3.42525091    0.15432897070298
            0.62391373    0.53532814243847
             0.1688554    0.44463454202535

4 0
 s    3 1.00
            3.42525091    0.15432897070298
            0.62391373    0.53532814243847
             0.1688554    0.44463454202535

[5d]
[9g]


[MO]
 Sym= A
 Ene=               0
 Spin= Alpha
 Occup=    1.00000
   1      0.99315163242316
   2      0.03432742720733
   3    -2.9543502190776e-17
   4    0.0049999869940635
   5                     0
   6    -0.0074302484310018
   7    -0.0074302484310018
   8    -0.0074302484310018
 Sym= A
 Ene=               1
 Spin= Alpha
 Occup=    1.00000
   1     -0.12009450186221
   2      0.38188143891823
   3      0.24450470905774
   4       0.1507928349243
   5      0.42349457877785
   6    -0.098411467531058
   7    -0.098411467531059
   8      0.49225922617953
 Sym= A
 Ene=               2
 Spin= Alpha
 Occup=    1.00000
   1      0.12009450186437
   2     -0.38188143892797
   3      0.48900941811548
   4     -0.15079283490649
   5    2.5412076823775e-15
   6     0.098411467532442
   7     -0.49225922617815
   8      0.09841146753244
 Sym= A
 Ene=               3
 Spin= Alpha
 Occup=    1.00000
   1      0.12009450186459
   2     -0.38188143892898
   3     -0.24450470905774
   4     -0.15079283490465
   5      0.42349457877785
   6       -0.492259226178
   7     0.098411467532585
   8     0.098411467532585
 Sym= A
 Ene=               4
 Spin= Alpha
 Occup=    1.00000
   1      0.10826644810592
   2     -0.48959898433076
   3    -4.3623933844834e-12
   4      0.89482272483504
   5    -9.298405094737e-12
   6     0.069611229102003
   7     0.069611229100787
   8     0.069611229089042
 Sym= A
 Ene=               5
 Spin= Alpha
 Occup=    0.00000
   1     -0.11247034530945
   2      0.82340327626399
   3      0.45174926942687
   4      0.29471730976827
   5       0.7824526869295
   6    -0.0019492171016141
   7    -0.0019492171016378
   8      -1.3157079428041
 Sym= A
 Ene=               6
 Spin= Alpha
 Occup=    0.00000
   1      0.11247034530945
   2     -0.82340327626395
   3       0.9034985388538
   4     -0.29471730976826
   5    1.5924259169291e-14
   6     0.001949217101612
   7       1.3157079428041
   8    0.0019492171015845
 Sym= A
 Ene=               7
 Spin= Alpha
 Occup=    0.00000
   1      0.11247034530945
   2     -0.82340327626397
   3     -0.45174926942689
   4     -0.29471730976826
   5       0.7824526869295
   6       1.3157079428041
   7    0.0019492171016133
   8    0.0019492171016106
